15448870
  -OEChem-05262410372D

 90102  0     1  0  0  0  0  0999 V2000
    4.5000   -2.1500    0.0000 C   0  0  0  0  0  0  0  0  0  0  0  0
    4.5000   -6.0000    0.0000 C   0  0  0  0  0  0  0  0  0  0  0  0
    3.2143   -5.8000    0.0000 C   0  0  0  0  0  0  0  0  0  0  0  0
    4.5000   -3.8000    0.0000 C   0  0  0  0  0  0  0  0  0  0  0  0
    2.7000   -4.1500    0.0000 C   0  0  0  0  0  0  0  0  0  0  0  0
    4.5000   -8.3500    0.0000 C   0  0  0  0  0  0  0  0  0  0  0  0
    4.5000    0.0000    0.0000 C   0  0  3  0  0  0  0  0  0  0  0  0
    5.5000   -8.1500    0.0000 C   0  0  3  0  0  0  0  0  0  0  0  0
    3.5000   -8.0000    0.0000 C   0  0  3  0  0  0  0  0  0  0  0  0
    5.7857   -6.3500    0.0000 C   0  0  0  0  0  0  0  0  0  0  0  0
    6.3000   -4.0000    0.0000 C   0  0  0  0  0  0  0  0  0  0  0  0
    5.5000  -10.1500    0.0000 C   0  0  0  0  0  0  0  0  0  0  0  0
    7.5000   -1.8000    0.0000 C   0  0  0  0  0  0  0  0  0  0  0  0
    6.5000   -7.8000    0.0000 C   0  0  0  0  0  0  0  0  0  0  0  0
    4.5000  -10.3500    0.0000 C   0  0  0  0  0  0  0  0  0  0  0  0
    1.5000   -2.3500    0.0000 C   0  0  0  0  0  0  0  0  0  0  0  0
    6.5000   -9.8000    0.0000 C   0  0  0  0  0  0  0  0  0  0  0  0
    3.5000  -10.0000    0.0000 C   0  0  0  0  0  0  0  0  0  0  0  0
    7.5000   -8.0000    0.0000 C   0  0  0  0  0  0  0  0  0  0  0  0
    7.0714   -6.1500    0.0000 C   0  0  0  0  0  0  0  0  0  0  0  0
    5.7857  -12.3500    0.0000 C   0  0  0  0  0  0  0  0  0  0  0  0
    8.1000   -4.3500    0.0000 C   0  0  0  0  0  0  0  0  0  0  0  0
    7.5000  -10.0000    0.0000 C   0  0  0  0  0  0  0  0  0  0  0  0
    4.5000  -12.0000    0.0000 C   0  0  0  0  0  0  0  0  0  0  0  0
    0.9000   -4.3500    0.0000 C   0  0  0  0  0  0  0  0  0  0  0  0
    7.0714  -12.1500    0.0000 C   0  0  0  0  0  0  0  0  0  0  0  0
    3.2143  -11.8000    0.0000 C   0  0  0  0  0  0  0  0  0  0  0  0
    8.5000  -10.3500    0.0000 C   0  0  0  0  0  0  0  0  0  0  0  0
    8.5000   -8.3500    0.0000 C   0  0  0  0  0  0  0  0  0  0  0  0
    7.0714  -14.1500    0.0000 C   0  0  0  0  0  0  0  0  0  0  0  0
    8.3571   -5.8000    0.0000 C   0  0  0  0  0  0  0  0  0  0  0  0
    8.3571  -11.8000    0.0000 C   0  0  0  0  0  0  0  0  0  0  0  0
    5.7857  -14.3500    0.0000 C   0  0  0  0  0  0  0  0  0  0  0  0
    0.6429   -6.3500    0.0000 C   0  0  0  0  0  0  0  0  0  0  0  0
    3.2143  -13.8000    0.0000 C   0  0  0  0  0  0  0  0  0  0  0  0
    0.6429  -14.3500    0.0000 C   0  0  0  0  0  0  0  0  0  0  0  0
    0.5000   -8.3500    0.0000 C   0  0  0  0  0  0  0  0  0  0  0  0
    1.9286  -12.1500    0.0000 C   0  0  0  0  0  0  0  0  0  0  0  0
    0.6429  -12.3500    0.0000 C   0  0  0  0  0  0  0  0  0  0  0  0
    1.9286   -6.1500    0.0000 C   0  0  0  0  0  0  0  0  0  0  0  0
    8.3571  -13.8000    0.0000 C   0  0  0  0  0  0  0  0  0  0  0  0
    4.5000  -14.0000    0.0000 C   0  0  0  0  0  0  0  0  0  0  0  0
    1.5000  -10.1500    0.0000 C   0  0  0  0  0  0  0  0  0  0  0  0
    0.5000  -10.3500    0.0000 C   0  0  0  0  0  0  0  0  0  0  0  0
    1.9286  -14.1500    0.0000 C   0  0  0  0  0  0  0  0  0  0  0  0
    1.5000   -8.1500    0.0000 C   0  0  0  0  0  0  0  0  0  0  0  0
    3.3750  -16.1500    0.0000 C   0  0  0  0  0  0  0  0  0  0  0  0
    1.1250  -16.3500    0.0000 C   0  0  0  0  0  0  0  0  0  0  0  0
    2.5000   -7.8000    0.0000 C   0  0  0  0  0  0  0  0  0  0  0  0
    7.8750  -16.0000    0.0000 C   0  0  0  0  0  0  0  0  0  0  0  0
    5.6250  -15.8000    0.0000 C   0  0  0  0  0  0  0  0  0  0  0  0
    2.5000   -9.8000    0.0000 C   0  0  0  0  0  0  0  0  0  0  0  0
    6.7500  -18.1500    0.0000 C   0  0  0  0  0  0  0  0  0  0  0  0
    2.2500  -18.3500    0.0000 C   0  0  0  0  0  0  0  0  0  0  0  0
    4.4116    1.4229    0.0000 H   0  0  0  0  0  0  0  0  0  0  0  0
    4.2421   -8.8211    0.0000 H   0  0  0  0  0  0  0  0  0  0  0  0
    2.0773   -8.0920    0.0000 H   0  0  0  0  0  0  0  0  0  0  0  0
    1.0167   -1.0087    0.0000 H   0  0  0  0  0  0  0  0  0  0  0  0
    2.6776   -3.1537    0.0000 H   0  0  0  0  0  0  0  0  0  0  0  0
    7.9019  -10.0594    0.0000 H   0  0  0  0  0  0  0  0  0  0  0  0
    5.1823  -10.3443    0.0000 H   0  0  0  0  0  0  0  0  0  0  0  0
    4.6532  -10.8383    0.0000 H   0  0  0  0  0  0  0  0  0  0  0  0
    2.0787   -9.8879    0.0000 H   0  0  0  0  0  0  0  0  0  0  0  0
    8.6739   -7.1910    0.0000 H   0  0  0  0  0  0  0  0  0  0  0  0
    5.7941   -6.7832    0.0000 H   0  0  0  0  0  0  0  0  0  0  0  0
    4.4590  -12.8718    0.0000 H   0  0  0  0  0  0  0  0  0  0  0  0
    9.4963   -4.0622    0.0000 H   0  0  0  0  0  0  0  0  0  0  0  0
    6.2074  -10.6015    0.0000 H   0  0  0  0  0  0  0  0  0  0  0  0
    3.1188  -12.3532    0.0000 H   0  0  0  0  0  0  0  0  0  0  0  0
    9.9092  -10.1340    0.0000 H   0  0  0  0  0  0  0  0  0  0  0  0
    8.9430   -9.7051    0.0000 H   0  0  0  0  0  0  0  0  0  0  0  0
    8.3856  -14.7027    0.0000 H   0  0  0  0  0  0  0  0  0  0  0  0
    9.7733   -5.6354    0.0000 H   0  0  0  0  0  0  0  0  0  0  0  0
    8.6027  -13.2044    0.0000 H   0  0  0  0  0  0  0  0  0  0  0  0
    5.1554  -15.6288    0.0000 H   0  0  0  0  0  0  0  0  0  0  0  0
    3.2267   -5.5605    0.0000 H   0  0  0  0  0  0  0  0  0  0  0  0
    9.7475  -13.4846    0.0000 H   0  0  0  0  0  0  0  0  0  0  0  0
    3.2799  -14.7376    0.0000 H   0  0  0  0  0  0  0  0  0  0  0  0
    2.8348   -9.6490    0.0000 H   0  0  0  0  0  0  0  0  0  0  0  0
   -0.9248  -10.4008    0.0000 H   0  0  0  0  0  0  0  0  0  0  0  0
    2.3637  -15.5077    0.0000 H   0  0  0  0  0  0  0  0  0  0  0  0
    2.7548   -7.4732    0.0000 H   0  0  0  0  0  0  0  0  0  0  0  0
    2.1611  -16.8977    0.0000 H   0  0  0  0  0  0  0  0  0  0  0  0
   -0.2019  -16.8715    0.0000 H   0  0  0  0  0  0  0  0  0  0  0  0
    3.9059   -7.5634    0.0000 H   0  0  0  0  0  0  0  0  0  0  0  0
    9.2148  -16.4874    0.0000 H   0  0  0  0  0  0  0  0  0  0  0  0
    7.0270  -16.0589    0.0000 H   0  0  0  0  0  0  0  0  0  0  0  0
    2.8836  -11.1731    0.0000 H   0  0  0  0  0  0  0  0  0  0  0  0
    7.1397  -19.5214    0.0000 H   0  0  0  0  0  0  0  0  0  0  0  0
    1.9588  -19.7456    0.0000 H   0  0  0  0  0  0  0  0  0  0  0  0
  1  4  2  0  0  0  0
  1  5  1  0  0  0  0
  1  7  1  0  0  0  0
  2  4  1  0  0  0  0
  2  6  2  0  0  0  0
  2  8  1  0  0  0  0
  3  5  2  0  0  0  0
  3  6  1  0  0  0  0
  3  9  1  0  0  0  0
  4 10  1  0  0  0  0
  5 11  1  0  0  0  0
  6 12  1  0  0  0  0
  7 13  1  0  0  0  0
  7 16  1  0  0  0  0
  7 55  1  0  0  0  0
  8 14  1  0  0  0  0
  8 17  1  0  0  0  0
  8 56  1  0  0  0  0
  9 15  1  0  0  0  0
  9 18  1  0  0  0  0
  9 57  1  0  0  0  0
 10 14  1  0  0  0  0
 10 19  2  0  0  0  0
 11 13  1  0  0  0  0
 11 20  2  0  0  0  0
 12 15  1  0  0  0  0
 12 21  2  0  0  0  0
 13 22  2  0  0  0  0
 14 23  2  0  0  0  0
 15 24  2  0  0  0  0
 16 25  1  0  0  0  0
 16 58  1  0  0  0  0
 16 59  1  0  0  0  0
 17 26  1  0  0  0  0
 17 60  1  0  0  0  0
 17 61  1  0  0  0  0
 18 27  1  0  0  0  0
 18 62  1  0  0  0  0
 18 63  1  0  0  0  0
 19 28  1  0  0  0  0
 19 64  1  0  0  0  0
 20 29  1  0  0  0  0
 20 65  1  0  0  0  0
 21 30  1  0  0  0  0
 21 66  1  0  0  0  0
 22 31  1  0  0  0  0
 22 67  1  0  0  0  0
 23 32  1  0  0  0  0
 23 68  1  0  0  0  0
 24 33  1  0  0  0  0
 24 69  1  0  0  0  0
 25 34  1  0  0  0  0
 25 40  2  0  0  0  0
 26 35  1  0  0  0  0
 26 41  2  0  0  0  0
 27 36  1  0  0  0  0
 27 42  2  0  0  0  0
 28 32  2  0  0  0  0
 28 70  1  0  0  0  0
 29 31  2  0  0  0  0
 29 71  1  0  0  0  0
 30 33  2  0  0  0  0
 30 72  1  0  0  0  0
 31 73  1  0  0  0  0
 32 74  1  0  0  0  0
 33 75  1  0  0  0  0
 34 37  1  0  0  0  0
 34 46  2  0  0  0  0
 35 38  1  0  0  0  0
 35 47  2  0  0  0  0
 36 39  1  0  0  0  0
 36 48  2  0  0  0  0
 37 43  2  0  0  0  0
 37 44  1  0  0  0  0
 38 43  1  0  0  0  0
 38 45  2  0  0  0  0
 39 44  2  0  0  0  0
 39 45  1  0  0  0  0
 40 49  1  0  0  0  0
 40 76  1  0  0  0  0
 41 50  1  0  0  0  0
 41 77  1  0  0  0  0
 42 51  1  0  0  0  0
 42 78  1  0  0  0  0
 43 79  1  0  0  0  0
 44 80  1  0  0  0  0
 45 81  1  0  0  0  0
 46 52  1  0  0  0  0
 46 82  1  0  0  0  0
 47 53  1  0  0  0  0
 47 83  1  0  0  0  0
 48 54  1  0  0  0  0
 48 84  1  0  0  0  0
 49 52  2  0  0  0  0
 49 85  1  0  0  0  0
 50 53  2  0  0  0  0
 50 86  1  0  0  0  0
 51 54  2  0  0  0  0
 51 87  1  0  0  0  0
 52 88  1  0  0  0  0
 53 89  1  0  0  0  0
 54 90  1  0  0  0  0
M  END
> <PUBCHEM_COMPOUND_CID>
15448870

> <PUBCHEM_COMPOUND_CANONICALIZED>
1

> <PUBCHEM_CACTVS_COMPLEXITY>
1180

> <PUBCHEM_CACTVS_HBOND_ACCEPTOR>
0

> <PUBCHEM_CACTVS_HBOND_DONOR>
0

> <PUBCHEM_CACTVS_ROTATABLE_BOND>
0

> <PUBCHEM_CACTVS_SUBSKEYS>
AAADcfB8AAAAAAAAAAAAAAAAAAAAAYMGAAAwYMGDAAAAAGABVAAAGAAAAAAADQCAGAAwAIAAAACAAiBCAAACAAAgAAAIiAAAAIgIICKAERCAIAAggAAIiAcAgMAOwAACAAAQAACAAAQAACAAAQAACAAAAA==

> <PUBCHEM_IUPAC_OPENEYE_NAME>
tridecacyclo[25.18.7.110,37.125,29.02,7.08,45.09,17.011,16.019,24.030,35.038,43.047,52.044,53]tetrapentaconta-2,4,6,8,10(53),11,13,15,19,21,23,25,27,29(54),30,32,34,38,40,42,44,47,49,51-tetracosaene

> <PUBCHEM_IUPAC_CAS_NAME>
tridecacyclo[25.18.7.110,37.125,29.02,7.08,45.09,17.011,16.019,24.030,35.038,43.047,52.044,53]tetrapentaconta-2,4,6,8,10(53),11,13,15,19,21,23,25,27,29(54),30,32,34,38,40,42,44,47,49,51-tetracosaene

> <PUBCHEM_IUPAC_NAME_MARKUP>
tridecacyclo[25.18.7.1<SUP>10,37</SUP>.1<SUP>25,29</SUP>.0<SUP>2,7</SUP>.0<SUP>8,45</SUP>.0<SUP>9,17</SUP>.0<SUP>11,16</SUP>.0<SUP>19,24</SUP>.0<SUP>30,35</SUP>.0<SUP>38,43</SUP>.0<SUP>47,52</SUP>.0<SUP>44,53</SUP>]tetrapentaconta-2,4,6,8,10(53),11,13,15,19,21,23,25,27,29(54),30,32,34,38,40,42,44,47,49,51-tetracosaene

> <PUBCHEM_IUPAC_NAME>
tridecacyclo[25.18.7.110,37.125,29.02,7.08,45.09,17.011,16.019,24.030,35.038,43.047,52.044,53]tetrapentaconta-2,4,6,8,10(53),11,13,15,19,21,23,25,27,29(54),30,32,34,38,40,42,44,47,49,51-tetracosaene

> <PUBCHEM_IUPAC_SYSTEMATIC_NAME>
tridecacyclo[25.18.7.110,37.125,29.02,7.08,45.09,17.011,16.019,24.030,35.038,43.047,52.044,53]tetrapentaconta-2,4,6,8,10(53),11,13,15,19,21,23,25,27,29(54),30,32,34,38,40,42,44,47,49,51-tetracosaene

> <PUBCHEM_IUPAC_TRADITIONAL_NAME>
tridecacyclo[25.18.7.110,37.125,29.02,7.08,45.09,17.011,16.019,24.030,35.038,43.047,52.044,53]tetrapentaconta-2,4,6,8,10(53),11,13,15,19,21,23,25,27,29(54),30,32,34,38,40,42,44,47,49,51-tetracosaene

> <PUBCHEM_IUPAC_INCHI>
InChI=1S/C54H36/c1-4-16-37-31(13-1)28-46-40-19-7-10-22-43(40)49-52(46)50-44-23-11-8-20-41(44)47-29-32-14-2-5-17-38(32)35-25-34(37)26-36(27-35)39-18-6-3-15-33(39)30-48-42-21-9-12-24-45(42)51(53(48)49)54(47)50/h1-27,46-48H,28-30H2

> <PUBCHEM_IUPAC_INCHIKEY>
RPCGWYCINSMWQJ-UHFFFAOYSA-N

> <PUBCHEM_XLOGP3_AA>
13.1

> <PUBCHEM_EXACT_MASS>
684.281701148

> <PUBCHEM_MOLECULAR_FORMULA>
C54H36

> <PUBCHEM_MOLECULAR_WEIGHT>
684.9

> <PUBCHEM_OPENEYE_CAN_SMILES>
C1C2C3=CC=CC=C3C4=C5C6CC7=CC=CC=C7C8=CC(=CC(=C8)C9=CC=CC=C9CC3C7=CC=CC=C7C(=C24)C3=C5C2=CC=CC=C62)C2=CC=CC=C21

> <PUBCHEM_OPENEYE_ISO_SMILES>
C1C2C3=CC=CC=C3C4=C5C6CC7=CC=CC=C7C8=CC(=CC(=C8)C9=CC=CC=C9CC3C7=CC=CC=C7C(=C24)C3=C5C2=CC=CC=C62)C2=CC=CC=C21

> <PUBCHEM_CACTVS_TPSA>
0

> <PUBCHEM_MONOISOTOPIC_WEIGHT>
684.281701148

> <PUBCHEM_TOTAL_CHARGE>
0

> <PUBCHEM_HEAVY_ATOM_COUNT>
54

> <PUBCHEM_ATOM_DEF_STEREO_COUNT>
0

> <PUBCHEM_ATOM_UDEF_STEREO_COUNT>
3

> <PUBCHEM_BOND_DEF_STEREO_COUNT>
0

> <PUBCHEM_BOND_UDEF_STEREO_COUNT>
0

> <PUBCHEM_ISOTOPIC_ATOM_COUNT>
0

> <PUBCHEM_COMPONENT_COUNT>
1

> <PUBCHEM_CACTVS_TAUTO_COUNT>
-1

> <PUBCHEM_COORDINATE_TYPE>
1
5
255

> <PUBCHEM_BONDANNOTATIONS>
1  4  8
1  5  8
10  14  8
10  19  8
11  13  8
11  20  8
12  15  8
12  21  8
13  22  8
14  23  8
15  24  8
19  28  8
2  4  8
2  6  8
20  29  8
21  30  8
22  31  8
23  32  8
24  33  8
25  34  8
25  40  8
26  35  8
26  41  8
27  36  8
27  42  8
28  32  8
29  31  8
3  5  8
3  6  8
30  33  8
34  46  8
35  47  8
36  48  8
37  43  8
37  44  8
38  43  8
38  45  8
39  44  8
39  45  8
40  49  8
41  50  8
42  51  8
46  52  8
47  53  8
48  54  8
49  52  8
50  53  8
51  54  8
7  16  3
8  17  3
9  18  3

$$$$
